3
Step 0
O 0.01950 0.03231 -0.00097
H 1.44600 0.00095 -0.00220
H -0.96815 0.96498 -0.00209
3
Step 10
O 0.10193 0.16787 0.00342
H 1.17875 0.02338 -0.00361
H -0.77696 0.80258 0.00068
3
Step 20
O 0.11633 0.20165 0.00450
H 1.10126 0.03428 0.00030
H -0.71255 0.75548 0.00100
3
Step 30
O 0.12038 0.21028 0.00720
H 1.08019 0.03959 0.00040
H -0.69452 0.73868 0.00746
3
Step 40
O 0.11700 0.21071 0.01144
H 1.06937 0.04499 -0.00785
H -0.68503 0.73398 0.01099
3
Step 50
O 0.11923 0.21366 0.00922
H 1.06323 0.03982 -0.01594
H -0.68749 0.73649 0.01032
3
Step 60
O 0.11850 0.21271 0.01744
H 1.06346 0.03724 -0.01616
H -0.68518 0.73152 0.00932
3
Step 70
O 0.12212 0.21468 0.01480
H 1.06245 0.02995 -0.02078
H -0.68921 0.73542 0.00386
3
Step 80
O 0.13194 0.21159 0.00840
H 1.06624 0.02477 -0.02208
H -0.67829 0.73528 0.00391
3
Step 90
O 0.12680 0.21171 0.01261
H 1.06762 0.02367 -0.02752
H -0.67429 0.73352 0.00085
3
Step 100
O 0.13479 0.20853 0.01343
H 1.07088 0.01943 -0.01637
H -0.67142 0.72288 0.00272
3
Step 110
O 0.13312 0.20649 0.00521
H 1.07462 0.01812 -0.02712
H -0.67326 0.72956 0.00968
3
Step 120
O 0.13193 0.20577 0.00015
H 1.07635 0.02321 -0.03143
H -0.67219 0.72929 0.00975
3
Step 130
O 0.13437 0.20492 0.00538
H 1.07538 0.02463 -0.02731
H -0.67476 0.72817 0.01067
3
Step 140
O 0.12963 0.21054 0.00633
H 1.08001 0.02494 -0.02354
H -0.67309 0.72543 0.01756
3
Step 150
O 0.13978 0.21324 0.00841
H 1.08191 0.02879 -0.02257
H -0.68361 0.71971 0.01869
3
Step 160
O 0.13902 0.21201 0.01385
H 1.08091 0.03512 -0.02724
H -0.67298 0.71647 0.02306
3
Step 170
O 0.14290 0.21871 0.00752
H 1.08297 0.03810 -0.02928
H -0.67842 0.71319 0.02829
3
Step 180
O 0.14126 0.21389 0.01112
H 1.08577 0.03382 -0.02900
H -0.67903 0.71622 0.02759
3
Step 190
O 0.14586 0.21757 0.01440
H 1.08889 0.02882 -0.02032
H -0.67388 0.71459 0.02034
3
Step 200
O 0.14907 0.21225 0.02186
H 1.09016 0.02885 -0.01554
H -0.67622 0.71243 0.01451
3
Step 210
O 0.14618 0.21184 0.02565
H 1.08813 0.03102 -0.01853
H -0.67258 0.71044 0.00943
3
Step 220
O 0.15197 0.21632 0.02548
H 1.09280 0.02676 -0.01722
H -0.67093 0.71343 0.00527
3
Step 230
O 0.15596 0.22106 0.02055
H 1.09586 0.03709 -0.02297
H -0.67393 0.71044 -0.00636
3
Step 240
O 0.15637 0.21605 0.01046
H 1.09267 0.02666 -0.02833
H -0.67106 0.70769 -0.01020
3
Step 250
O 0.15557 0.21671 0.02018
H 1.09423 0.02997 -0.03471
H -0.67021 0.70471 -0.01261
3
Step 260
O 0.15575 0.21810 0.01815
H 1.09390 0.02980 -0.03673
H -0.67858 0.69969 -0.01419
3
Step 270
O 0.15027 0.21901 0.01587
H 1.09273 0.03348 -0.03138
H -0.68341 0.69690 -0.01275
3
Step 280
O 0.14421 0.21227 0.01536
H 1.09266 0.03683 -0.02776
H -0.68610 0.69096 -0.01380
3
Step 290
O 0.13977 0.20686 0.01656
H 1.09093 0.03559 -0.03394
H -0.68416 0.69296 -0.01039
3
Step 300
O 0.14253 0.20666 0.03003
H 1.09085 0.04346 -0.03288
H -0.68679 0.69482 -0.00573
3
Step 310
O 0.13709 0.20343 0.02820
H 1.08733 0.04459 -0.03553
H -0.69712 0.69030 -0.01296
3
Step 320
O 0.13943 0.20152 0.02075
H 1.08873 0.05192 -0.03560
H -0.68842 0.69286 -0.00891
3
Step 330
O 0.13384 0.20077 0.02748
H 1.08338 0.05545 -0.03717
H -0.68415 0.69299 -0.01367
3
Step 340
O 0.14034 0.19676 0.03468
H 1.08350 0.05425 -0.03282
H -0.68429 0.68735 -0.01407
3
Step 350
O 0.14177 0.19236 0.03658
H 1.08649 0.04563 -0.04017
H -0.68161 0.68297 -0.01329
3
Step 360
O 0.13618 0.19059 0.03478
H 1.08582 0.05411 -0.03419
H -0.67829 0.69000 -0.01401
3
Step 370
O 0.13785 0.19527 0.03564
H 1.08394 0.05101 -0.03788
H -0.68744 0.68546 -0.01126
3
Step 380
O 0.12959 0.19077 0.03682
H 1.08067 0.05929 -0.03181
H -0.68723 0.68703 -0.01743
3
Step 390
O 0.13215 0.19144 0.03933
H 1.08034 0.06479 -0.02534
H -0.68992 0.69020 -0.01434
3
Step 400
O 0.13268 0.18346 0.02964
H 1.07895 0.06134 -0.03165
H -0.68497 0.68561 -0.01270
3
Step 410
O 0.13160 0.17420 0.02894
H 1.07782 0.05929 -0.02734
H -0.67868 0.68561 -0.00312
3
Step 420
O 0.13032 0.18055 0.02416
H 1.08066 0.06179 -0.02616
H -0.68322 0.67926 0.00356
3
Step 430
O 0.12621 0.18060 0.02098
H 1.07599 0.05820 -0.03468
H -0.69298 0.67711 0.00568
3
Step 440
O 0.12855 0.17389 0.01016
H 1.08565 0.05637 -0.04208
H -0.69174 0.67807 0.01067
3
Step 450
O 0.13052 0.17440 0.01161
H 1.08139 0.06070 -0.04179
H -0.68338 0.68415 0.01008
3
Step 460
O 0.12708 0.17048 0.01356
H 1.07589 0.06680 -0.03852
H -0.67730 0.68481 0.00404
3
Step 470
O 0.12975 0.17747 0.00621
H 1.08448 0.07289 -0.04206
H -0.67864 0.69459 -0.00559
3
Step 480
O 0.12925 0.18183 0.00872
H 1.08611 0.07970 -0.04233
H -0.68034 0.69645 -0.00960
3
Step 490
O 0.13181 0.17966 0.01182
H 1.08606 0.08129 -0.04047
H -0.67966 0.69198 -0.00862
3
Step 500
O 0.13072 0.17641 0.01096
H 1.08728 0.07468 -0.03100
H -0.67744 0.68987 -0.01314
3
Step 510
O 0.13003 0.17733 0.01401
H 1.09009 0.07919 -0.02886
H -0.67854 0.69242 -0.01554
3
Step 520
O 0.13769 0.17683 0.01113
H 1.09220 0.08559 -0.02485
H -0.67615 0.69196 -0.01954
3
Step 530
O 0.14086 0.17691 0.01566
H 1.09603 0.08415 -0.02518
H -0.67414 0.68847 -0.01422
3
Step 540
O 0.13420 0.17581 0.01376
H 1.08819 0.08602 -0.03470
H -0.67357 0.69010 -0.01060
3
Step 550
O 0.13739 0.17856 0.01364
H 1.09241 0.08647 -0.03701
H -0.67578 0.69168 -0.01315
3
Step 560
O 0.12977 0.18042 0.00742
H 1.08387 0.08773 -0.04153
H -0.68294 0.69162 -0.00922
3
Step 570
O 0.13270 0.18080 0.00662
H 1.08287 0.08934 -0.04828
H -0.68097 0.68989 -0.00960
3
Step 580
O 0.12989 0.18034 -0.00334
H 1.07796 0.08984 -0.04940
H -0.68022 0.69062 -0.00939
3
Step 590
O 0.12692 0.17550 0.00444
H 1.07680 0.09269 -0.04552
H -0.69061 0.68819 -0.00869
3
Step 600
O 0.12378 0.17425 0.00837
H 1.07855 0.09149 -0.05257
H -0.68851 0.68544 -0.01199
3
Step 610
O 0.12234 0.16387 0.00644
H 1.07764 0.09317 -0.04969
H -0.69070 0.68191 -0.01856
3
Step 620
O 0.11664 0.16663 0.00836
H 1.07609 0.09612 -0.04329
H -0.69560 0.67460 -0.01515
3
Step 630
O 0.12154 0.16215 0.00465
H 1.07867 0.09274 -0.04460
H -0.69460 0.67315 -0.01745
3
Step 640
O 0.12402 0.16314 0.00249
H 1.07599 0.09222 -0.04175
H -0.69566 0.67069 -0.01340
3
Step 650
O 0.11765 0.15401 0.01130
H 1.07570 0.09648 -0.04187
H -0.69227 0.67070 -0.01137
3
Step 660
O 0.11313 0.15187 0.01212
H 1.06977 0.09438 -0.04049
H -0.69245 0.68115 -0.01296
3
Step 670
O 0.10704 0.14204 0.00434
H 1.06944 0.09415 -0.03703
H -0.68506 0.68484 -0.01708
3
Step 680
O 0.10791 0.13502 -0.00248
H 1.06699 0.09515 -0.04164
H -0.68159 0.68593 -0.02684
3
Step 690
O 0.10661 0.13645 -0.00458
H 1.06777 0.09051 -0.04041
H -0.68255 0.69198 -0.02265
3
Step 700
O 0.10504 0.14469 -0.00663
H 1.06713 0.09340 -0.04454
H -0.68023 0.69508 -0.02466
3
Step 710
O 0.10786 0.14000 -0.00525
H 1.05840 0.09299 -0.04524
H -0.67298 0.69478 -0.02224
3
Step 720
O 0.10969 0.13438 -0.00149
H 1.06192 0.08623 -0.04867
H -0.67755 0.68365 -0.01310
3
Step 730
O 0.11061 0.14161 0.00530
H 1.06734 0.09082 -0.05025
H -0.68239 0.68289 -0.01248
3
Step 740
O 0.10874 0.14074 0.00653
H 1.06320 0.09640 -0.04508
H -0.68179 0.68373 -0.00807
3
Step 750
O 0.10489 0.13693 0.01495
H 1.06486 0.09742 -0.04355
H -0.68862 0.68135 -0.01229
3
Step 760
O 0.10247 0.14625 0.01850
H 1.06075 0.08835 -0.04246
H -0.68752 0.67611 -0.01530
3
Step 770
O 0.10360 0.14007 0.02546
H 1.05744 0.08327 -0.04960
H -0.68478 0.68360 -0.00930
3
Step 780
O 0.10356 0.14405 0.02321
H 1.05716 0.08359 -0.05287
H -0.68748 0.68768 -0.01728
3
Step 790
O 0.11016 0.14468 0.02876
H 1.06428 0.08836 -0.05787
H -0.68973 0.68718 -0.01745
3
Step 800
O 0.10812 0.14708 0.03285
H 1.06376 0.08945 -0.05495
H -0.68498 0.68659 -0.01738
3
Step 810
O 0.10661 0.14224 0.03744
H 1.06061 0.09358 -0.05483
H -0.68543 0.68014 -0.01961
3
Step 820
O 0.11069 0.14661 0.04004
H 1.05885 0.08601 -0.04894
H -0.68272 0.67432 -0.01435
3
Step 830
O 0.10641 0.14285 0.04548
H 1.06154 0.09143 -0.04497
H -0.68566 0.67436 -0.01303
3
Step 840
O 0.10639 0.13894 0.04963
H 1.05922 0.08795 -0.04985
H -0.68840 0.67030 -0.01800
3
Step 850
O 0.10538 0.13508 0.04532
H 1.06049 0.08729 -0.05273
H -0.68126 0.67618 -0.00719
3
Step 860
O 0.10259 0.13401 0.05433
H 1.05609 0.09232 -0.05472
H -0.68274 0.68099 -0.00294
3
Step 870
O 0.09997 0.13281 0.05836
H 1.05422 0.09085 -0.04837
H -0.68427 0.68427 -0.00597
3
Step 880
O 0.10138 0.12943 0.05438
H 1.05304 0.08652 -0.04573
H -0.68829 0.67365 -0.00758
3
Step 890
O 0.09692 0.13076 0.04812
H 1.05363 0.08420 -0.04341
H -0.68840 0.67357 -0.01298
3
Step 900
O 0.09880 0.12417 0.04812
H 1.05912 0.08974 -0.03785
H -0.68789 0.67324 -0.01260
3
Step 910
O 0.10573 0.13448 0.04927
H 1.06334 0.08598 -0.03638
H -0.68945 0.67568 -0.01323
3
Step 920
O 0.10384 0.13854 0.05405
H 1.06291 0.08522 -0.04215
H -0.68728 0.68289 -0.01418
3
Step 930
O 0.10264 0.13783 0.05203
H 1.05995 0.09042 -0.03880
H -0.68960 0.68347 -0.01316
3
Step 940
O 0.10817 0.13898 0.04732
H 1.06654 0.08041 -0.04246
H -0.69360 0.67130 -0.00759
3
Step 950
O 0.10926 0.13854 0.04183
H 1.06573 0.08425 -0.05505
H -0.68949 0.66882 -0.00611
3
Step 960
O 0.11314 0.14142 0.03952
H 1.06587 0.08959 -0.05931
H -0.68544 0.67332 -0.00585
3
Step 970
O 0.11013 0.13947 0.03849
H 1.06597 0.08666 -0.06164
H -0.69547 0.66743 -0.00118
3
Step 980
O 0.10822 0.13885 0.03442
H 1.06584 0.07394 -0.06356
H -0.69426 0.66442 0.00913
3
Step 990
O 0.11063 0.13412 0.03128
H 1.06593 0.06711 -0.05783
H -0.69085 0.66599 0.00550
3
Step 1000
O 0.11263 0.12970 0.02431
H 1.06960 0.07344 -0.05018
H -0.68937 0.66797 0.00569
3
Step 1010
O 0.11787 0.12846 0.02427
H 1.07229 0.07402 -0.04291
H -0.69217 0.65835 0.00645
3
Step 1020
O 0.11226 0.13306 0.02087
H 1.07781 0.08335 -0.03899
H -0.68903 0.65470 0.00378
3
Step 1030
O 0.11496 0.13476 0.01752
H 1.06685 0.08412 -0.04126
H -0.69908 0.64957 0.00773
3
Step 1040
O 0.10976 0.13416 0.01176
H 1.06533 0.07788 -0.05456
H -0.69617 0.64861 0.00422
3
Step 1050
O 0.10564 0.12826 0.01134
H 1.06654 0.07903 -0.05571
H -0.70181 0.65023 0.00221
3
Step 1060
O 0.10445 0.12913 0.00922
H 1.06079 0.07351 -0.04790
H -0.70345 0.65316 0.00600
3
Step 1070
O 0.10239 0.13082 0.00198
H 1.05898 0.07833 -0.04811
H -0.70402 0.64882 0.00771
3
Step 1080
O 0.10333 0.12620 0.00521
H 1.06220 0.08111 -0.05181
H -0.70553 0.64222 0.00844
3
Step 1090
O 0.10601 0.12685 0.00678
H 1.06513 0.07768 -0.05279
H -0.70435 0.64214 0.00945
3
Step 1100
O 0.10441 0.11521 -0.00004
H 1.06268 0.07236 -0.04930
H -0.70221 0.64041 0.00732
3
Step 1110
O 0.10179 0.11470 -0.00330
H 1.06292 0.07090 -0.06114
H -0.70513 0.63944 0.01809
3
Step 1120
O 0.10102 0.11502 0.00088
H 1.05990 0.06290 -0.05861
H -0.70598 0.64450 0.01506
3
Step 1130
O 0.10134 0.11586 0.00266
H 1.05775 0.05792 -0.06201
H -0.70287 0.64202 0.01239
3
Step 1140
O 0.10044 0.10758 -0.00234
H 1.05262 0.05582 -0.05745
H -0.69670 0.64295 0.02053
3
Step 1150
O 0.09838 0.10667 0.00261
H 1.05058 0.05409 -0.05930
H -0.69865 0.64412 0.01991
3
Step 1160
O 0.09309 0.10746 0.00468
H 1.04823 0.05429 -0.05591
H -0.70028 0.64129 0.02221
3
Step 1170
O 0.09294 0.10092 -0.00052
H 1.04906 0.04981 -0.05145
H -0.70399 0.64024 0.01595
3
Step 1180
O 0.08936 0.09629 -0.00161
H 1.04796 0.04625 -0.04874
H -0.70388 0.63268 0.01695
3
Step 1190
O 0.09109 0.09888 -0.00495
H 1.04249 0.03984 -0.04463
H -0.70182 0.63968 0.01571
3
Step 1200
O 0.08847 0.09481 -0.00087
H 1.04570 0.04929 -0.04687
H -0.70173 0.64119 0.01802
3
Step 1210
O 0.08871 0.09604 0.00371
H 1.04775 0.04862 -0.05360
H -0.69986 0.64395 0.01839
3
Step 1220
O 0.09147 0.09615 -0.00036
H 1.05179 0.04873 -0.05574
H -0.70447 0.63574 0.01898
3
Step 1230
O 0.09149 0.09182 -0.00594
H 1.05624 0.04512 -0.06082
H -0.69766 0.64027 0.01654
3
Step 1240
O 0.09155 0.09829 -0.01289
H 1.04693 0.05015 -0.06394
H -0.69493 0.64388 0.01470
3
Step 1250
O 0.08906 0.09639 -0.00396
H 1.04277 0.05182 -0.07096
H -0.69862 0.64231 0.00773
3
Step 1260
O 0.08263 0.09485 -0.00525
H 1.03949 0.05685 -0.07350
H -0.69366 0.64751 -0.00062
3
Step 1270
O 0.08622 0.09533 -0.00767
H 1.04226 0.05972 -0.07330
H -0.69796 0.64368 0.00216
3
Step 1280
O 0.08554 0.09957 -0.01139
H 1.04176 0.06236 -0.06976
H -0.70314 0.64239 0.00662
3
Step 1290
O 0.09400 0.10298 -0.01077
H 1.04437 0.06618 -0.06942
H -0.69864 0.64509 0.00302
3
Step 1300
O 0.09447 0.10102 -0.01362
H 1.05452 0.07105 -0.07261
H -0.69817 0.64607 0.00154
3
Step 1310
O 0.09281 0.10082 -0.00545
H 1.05222 0.06841 -0.07860
H -0.69770 0.64525 0.00104
3
Step 1320
O 0.09438 0.10976 -0.00782
H 1.05521 0.07002 -0.07435
H -0.69287 0.64345 -0.00087
3
Step 1330
O 0.09772 0.10585 -0.00714
H 1.05859 0.07670 -0.07639
H -0.69084 0.65436 -0.00009
3
Step 1340
O 0.09998 0.11052 -0.00609
H 1.05678 0.07391 -0.07505
H -0.68964 0.65230 -0.00077
3
Step 1350
O 0.09946 0.11575 -0.00855
H 1.05328 0.07465 -0.07989
H -0.69007 0.65549 -0.00579
3
Step 1360
O 0.10214 0.12161 -0.00303
H 1.05804 0.07278 -0.07795
H -0.69343 0.65714 -0.00932
3
Step 1370
O 0.09863 0.12643 -0.00253
H 1.05542 0.07531 -0.08193
H -0.69174 0.66564 -0.01181
3
Step 1380
O 0.10243 0.12541 0.00845
H 1.05730 0.07536 -0.07886
H -0.69744 0.65962 -0.00521
3
Step 1390
O 0.10076 0.13766 0.00144
H 1.05490 0.07918 -0.08445
H -0.70476 0.66013 -0.00818
3
Step 1400
O 0.10539 0.14058 0.00112
H 1.05913 0.07528 -0.08853
H -0.69788 0.66097 -0.01469
3
Step 1410
O 0.10939 0.13955 -0.00132
H 1.06094 0.07325 -0.09003
H -0.69537 0.65928 -0.01569
3
Step 1420
O 0.11254 0.13649 -0.00264
H 1.06237 0.07546 -0.09087
H -0.69787 0.65868 -0.01571
3
Step 1430
O 0.11333 0.13649 0.00063
H 1.06527 0.07059 -0.08697
H -0.69481 0.65729 -0.01050
3
Step 1440
O 0.10880 0.12755 -0.00341
H 1.06493 0.07193 -0.08904
H -0.69700 0.65061 -0.01433
3
Step 1450
O 0.10695 0.12364 -0.00102
H 1.06422 0.06733 -0.09495
H -0.69480 0.65534 -0.01049
3
Step 1460
O 0.10283 0.11835 -0.00136
H 1.05839 0.06497 -0.09504
H -0.69736 0.64595 0.00307
3
Step 1470
O 0.10982 0.11668 -0.00099
H 1.05999 0.06187 -0.08846
H -0.69374 0.64268 0.00816
3
Step 1480
O 0.10527 0.11335 0.00189
H 1.06134 0.06283 -0.08175
H -0.69382 0.64113 0.01255
3
Step 1490
O 0.10557 0.11029 -0.00030
H 1.06389 0.06308 -0.07924
H -0.69608 0.63925 0.01185
3
Step 1500
O 0.10264 0.10982 -0.00169
H 1.06073 0.06141 -0.07812
H -0.69699 0.63241 0.01342
3
Step 1510
O 0.10732 0.10595 0.00214
H 1.06060 0.05810 -0.08624
H -0.69320 0.63466 0.01676
3
Step 1520
O 0.10742 0.09635 0.00654
H 1.05736 0.05696 -0.09054
H -0.69435 0.63351 0.01238
3
Step 1530
O 0.10819 0.09437 0.00178
H 1.05778 0.05942 -0.08623
H -0.69312 0.62341 0.01577
3
Step 1540
O 0.10875 0.09146 0.00689
H 1.06427 0.05052 -0.07929
H -0.69067 0.61951 0.01769
3
Step 1550
O 0.10603 0.09464 0.00819
H 1.06179 0.05051 -0.08352
H -0.69587 0.61770 0.00996
3
Step 1560
O 0.10871 0.09849 0.00234
H 1.06584 0.05535 -0.08781
H -0.69854 0.62155 0.01643
3
Step 1570
O 0.11104 0.09671 0.00337
H 1.06643 0.05033 -0.08426
H -0.70142 0.61832 0.00812
3
Step 1580
O 0.10860 0.09495 0.00799
H 1.06169 0.04843 -0.08036
H -0.69711 0.61641 0.00990
3
Step 1590
O 0.10482 0.08395 0.00645
H 1.05043 0.05380 -0.08928
H -0.69327 0.61247 0.01152
3
Step 1600
O 0.10176 0.08181 0.00715
H 1.06059 0.05392 -0.08425
H -0.69611 0.61179 0.01273
3
Step 1610
O 0.10215 0.07832 0.00827
H 1.05621 0.05616 -0.08440
H -0.69243 0.60920 0.01206
3
Step 1620
O 0.10455 0.07671 0.00968
H 1.05722 0.04928 -0.08652
H -0.69519 0.60322 0.01211
3
Step 1630
O 0.10667 0.06808 0.00728
H 1.06519 0.05124 -0.08505
H -0.69807 0.61286 0.01326
3
Step 1640
O 0.09884 0.06891 0.01200
H 1.05880 0.04940 -0.07828
H -0.69351 0.61158 0.01571
3
Step 1650
O 0.10822 0.07167 0.01179
H 1.06298 0.04781 -0.07891
H -0.68908 0.61260 0.02023
3
Step 1660
O 0.11253 0.07550 0.02039
H 1.06936 0.04457 -0.07334
H -0.68440 0.61422 0.02221
3
Step 1670
O 0.10689 0.07718 0.01218
H 1.06595 0.03717 -0.07322
H -0.68067 0.61886 0.02256
3
Step 1680
O 0.10708 0.07890 0.01596
H 1.06384 0.03154 -0.06782
H -0.69469 0.61867 0.01864
3
Step 1690
O 0.10355 0.08541 0.01546
H 1.06266 0.03004 -0.06082
H -0.69122 0.61843 0.01397
3
Step 1700
O 0.10771 0.08036 0.00937
H 1.05881 0.02922 -0.05102
H -0.69449 0.61682 0.01933
3
Step 1710
O 0.10088 0.08055 0.00621
H 1.06021 0.01849 -0.05147
H -0.68985 0.61796 0.02092
3
Step 1720
O 0.10566 0.07858 0.01301
H 1.05911 0.02066 -0.05668
H -0.68645 0.61761 0.01908
3
Step 1730
O 0.09942 0.07676 0.01377
H 1.05871 0.02243 -0.05827
H -0.69175 0.62327 0.01585
3
Step 1740
O 0.09766 0.07384 0.01283
H 1.05624 0.02180 -0.05948
H -0.68674 0.62640 0.01710
3
Step 1750
O 0.09668 0.07036 0.01540
H 1.05527 0.02160 -0.05738
H -0.68698 0.62672 0.02312
3
Step 1760
O 0.09863 0.06981 0.01161
H 1.05532 0.01954 -0.05762
H -0.69522 0.61838 0.02465
3
Step 1770
O 0.09520 0.05868 0.01722
H 1.05074 0.02164 -0.05926
H -0.68574 0.61548 0.02192
3
Step 1780
O 0.09393 0.05186 0.02001
H 1.04742 0.02260 -0.06258
H -0.68291 0.61747 0.02316
3
Step 1790
O 0.09071 0.05036 0.02180
H 1.05068 0.02526 -0.06539
H -0.67837 0.61806 0.02956
3
Step 1800
O 0.09570 0.04958 0.02462
H 1.05450 0.02887 -0.06785
H -0.67641 0.61636 0.02704
3
Step 1810
O 0.09917 0.04804 0.02140
H 1.05071 0.03128 -0.06525
H -0.67401 0.62096 0.01968
3
Step 1820
O 0.10596 0.05069 0.01453
H 1.05767 0.03089 -0.07502
H -0.66777 0.62064 0.01734
3
Step 1830
O 0.10096 0.04566 0.01334
H 1.05533 0.02987 -0.07517
H -0.66583 0.62198 0.01872
3
Step 1840
O 0.10214 0.04978 0.00872
H 1.05638 0.03073 -0.07829
H -0.66940 0.61892 0.01973
3
Step 1850
O 0.09903 0.04613 0.00901
H 1.05896 0.03036 -0.07396
H -0.67395 0.61842 0.02439
3
Step 1860
O 0.09324 0.04400 0.00582
H 1.05602 0.02971 -0.06548
H -0.67456 0.61655 0.02765
3
Step 1870
O 0.09496 0.04320 0.01281
H 1.05317 0.01888 -0.06888
H -0.67341 0.61727 0.03113
3
Step 1880
O 0.09588 0.04628 0.01466
H 1.05356 0.01845 -0.06843
H -0.67729 0.61020 0.02727
3
Step 1890
O 0.09869 0.05427 0.01393
H 1.05724 0.01382 -0.06975
H -0.67695 0.61551 0.02371
3
Step 1900
O 0.10296 0.05113 0.01840
H 1.06054 0.00865 -0.06659
H -0.67480 0.61158 0.02061
3
Step 1910
O 0.10807 0.04431 0.01502
H 1.06268 0.00721 -0.07338
H -0.67335 0.60804 0.01557
3
Step 1920
O 0.11031 0.04683 0.02557
H 1.06492 0.00689 -0.07036
H -0.67659 0.60712 0.01223
3
Step 1930
O 0.10544 0.05130 0.02413
H 1.06139 0.00525 -0.06664
H -0.67335 0.61241 0.01335
3
Step 1940
O 0.10985 0.05023 0.01424
H 1.06403 0.00669 -0.07109
H -0.67339 0.61079 0.01544
3
Step 1950
O 0.10753 0.04801 0.01974
H 1.06352 0.01117 -0.06989
H -0.67088 0.60590 0.01773
3
Step 1960
O 0.10575 0.04464 0.02105
H 1.06775 0.00986 -0.06939
H -0.66885 0.60765 0.02217
3
Step 1970
O 0.10725 0.04111 0.00920
H 1.06281 0.00464 -0.07593
H -0.66675 0.61058 0.02826
3
Step 1980
O 0.10573 0.04396 0.00280
H 1.06294 0.00279 -0.07355
H -0.66669 0.61096 0.02971
3
Step 1990
O 0.10893 0.03992 -0.00472
H 1.06509 -0.00055 -0.07496
H -0.66614 0.61007 0.02151
3
Step 2000
O 0.10622 0.04104 -0.00548
H 1.06152 -0.00580 -0.08134
H -0.66574 0.61045 0.01950
3
Step 2010
O 0.10725 0.04630 -0.00787
H 1.06285 0.00103 -0.08185
H -0.66459 0.60445 0.01814
3
Step 2020
O 0.10800 0.04391 -0.01066
H 1.06533 -0.00524 -0.08388
H -0.66175 0.60532 0.01734
3
Step 2030
O 0.10862 0.05455 -0.01118
H 1.06787 0.00524 -0.08959
H -0.66278 0.60780 0.01468
3
Step 2040
O 0.11819 0.05248 -0.01769
H 1.07168 0.00787 -0.09261
H -0.66495 0.60960 0.01886
3
Step 2050
O 0.11008 0.05069 -0.02042
H 1.06538 0.00824 -0.09654
H -0.66712 0.61439 0.02480
3
Step 2060
O 0.11435 0.05896 -0.02174
H 1.07427 0.00955 -0.09834
H -0.66669 0.61399 0.02422
3
Step 2070
O 0.11571 0.06176 -0.02608
H 1.07560 0.00474 -0.10382
H -0.66671 0.61304 0.02640
3
Step 2080
O 0.11825 0.05525 -0.02360
H 1.07778 0.00468 -0.10639
H -0.67005 0.60976 0.02708
3
Step 2090
O 0.12141 0.05936 -0.03316
H 1.08188 0.00085 -0.10560
H -0.66789 0.60905 0.02738
3
Step 2100
O 0.12177 0.05871 -0.04094
H 1.08213 -0.00024 -0.10930
H -0.66776 0.60698 0.02878
3
Step 2110
O 0.12528 0.05277 -0.04169
H 1.08564 -0.00011 -0.11392
H -0.66289 0.60864 0.02853
3
Step 2120
O 0.12874 0.06126 -0.04125
H 1.08687 0.00210 -0.11827
H -0.65311 0.60990 0.02567
3
Step 2130
O 0.12858 0.05881 -0.03902
H 1.08430 0.00930 -0.12533
H -0.65239 0.61613 0.02678
3
Step 2140
O 0.12868 0.06050 -0.04172
H 1.08728 0.00819 -0.13014
H -0.65174 0.61678 0.03032
3
Step 2150
O 0.12936 0.05289 -0.04451
H 1.08235 0.00812 -0.13225
H -0.65299 0.61262 0.02867
3
Step 2160
O 0.12811 0.06037 -0.04055
H 1.08501 0.00425 -0.12959
H -0.65064 0.61593 0.03035
3
Step 2170
O 0.13475 0.07020 -0.04236
H 1.08526 0.00411 -0.12655
H -0.65468 0.61729 0.02663
3
Step 2180
O 0.12932 0.07082 -0.04090
H 1.08023 0.00391 -0.13266
H -0.65187 0.61821 0.02459
3
Step 2190
O 0.13140 0.07531 -0.04475
H 1.08616 0.00618 -0.13621
H -0.65852 0.61932 0.02814
3
Step 2200
O 0.13122 0.07738 -0.04178
H 1.08883 0.00460 -0.12838
H -0.65370 0.62437 0.02506
3
Step 2210
O 0.13155 0.07429 -0.03583
H 1.08570 0.00460 -0.13068
H -0.64901 0.62360 0.02395
3
Step 2220
O 0.13894 0.07329 -0.04366
H 1.08979 0.00647 -0.13554
H -0.64748 0.61988 0.02367
3
Step 2230
O 0.13949 0.07984 -0.04468
H 1.09046 0.01786 -0.13658
H -0.64380 0.62227 0.01862
3
Step 2240
O 0.13983 0.07335 -0.04142
H 1.09280 0.01842 -0.13713
H -0.63876 0.62453 0.01893
3
Step 2250
O 0.14284 0.07112 -0.03831
H 1.09014 0.01641 -0.13274
H -0.63676 0.62907 0.02432
3
Step 2260
O 0.13679 0.06817 -0.03916
H 1.09200 0.02529 -0.13442
H -0.63698 0.63902 0.03415
3
Step 2270
O 0.14118 0.07798 -0.03218
H 1.09382 0.02928 -0.13801
H -0.64113 0.63820 0.03312
3
Step 2280
O 0.14125 0.07763 -0.03909
H 1.09758 0.03021 -0.14186
H -0.64196 0.63228 0.03601
3
Step 2290
O 0.14174 0.08235 -0.03032
H 1.09575 0.02851 -0.15010
H -0.64073 0.63751 0.03422
3
Step 2300
O 0.14043 0.08649 -0.02550
H 1.09295 0.01906 -0.15103
H -0.63920 0.63287 0.04035
3
Step 2310
O 0.14357 0.08645 -0.02030
H 1.09796 0.01819 -0.14508
H -0.64250 0.63321 0.04426
3
Step 2320
O 0.14852 0.08625 -0.01528
H 1.09622 0.02418 -0.14719
H -0.64153 0.62622 0.04084
3
Step 2330
O 0.14909 0.07773 -0.01658
H 1.10025 0.02650 -0.14833
H -0.63736 0.62838 0.04020
3
Step 2340
O 0.14629 0.08233 -0.01665
H 1.09612 0.02200 -0.14879
H -0.63935 0.63095 0.04027
3
Step 2350
O 0.14046 0.08707 -0.02002
H 1.09156 0.02275 -0.15101
H -0.63945 0.63493 0.04412
3
Step 2360
O 0.14583 0.08876 -0.02407
H 1.09420 0.02732 -0.14586
H -0.63423 0.63121 0.04281
3
Step 2370
O 0.14990 0.09007 -0.02267
H 1.09421 0.02217 -0.13959
H -0.63817 0.63129 0.04035
3
Step 2380
O 0.14780 0.09073 -0.02153
H 1.09413 0.02031 -0.14398
H -0.64099 0.63627 0.04064
3
Step 2390
O 0.14786 0.08723 -0.01960
H 1.09906 0.02280 -0.13810
H -0.63787 0.63330 0.03975
3
Step 2400
O 0.15462 0.08412 -0.02480
H 1.10742 0.01980 -0.13647
H -0.63187 0.63307 0.04187
3
Step 2410
O 0.15308 0.08942 -0.02699
H 1.10608 0.02194 -0.13333
H -0.63079 0.63537 0.04407
3
Step 2420
O 0.15099 0.08481 -0.03159
H 1.10413 0.02593 -0.13256
H -0.63210 0.63875 0.04178
3
Step 2430
O 0.14985 0.09121 -0.03347
H 1.10337 0.02250 -0.12970
H -0.62954 0.63859 0.04730
3
Step 2440
O 0.15039 0.08693 -0.03054
H 1.09808 0.02307 -0.13019
H -0.62663 0.63449 0.05087
3
Step 2450
O 0.15255 0.09235 -0.03764
H 1.09895 0.02515 -0.13187
H -0.63157 0.64043 0.04819
3
Step 2460
O 0.14711 0.08946 -0.02959
H 1.09529 0.02148 -0.13141
H -0.63279 0.64441 0.05161
3
Step 2470
O 0.14816 0.08670 -0.03418
H 1.09885 0.01871 -0.12292
H -0.63050 0.64572 0.05318
3
Step 2480
O 0.14513 0.09282 -0.03683
H 1.10094 0.01573 -0.12175
H -0.62977 0.64192 0.05599
3
Step 2490
O 0.14953 0.09348 -0.04374
H 1.10115 0.02017 -0.11063
H -0.63169 0.64204 0.05884
3
Step 2500
O 0.14586 0.09531 -0.04938
H 1.09334 0.02173 -0.11689
H -0.63692 0.63864 0.05217
3
Step 2510
O 0.13943 0.09207 -0.04893
H 1.09160 0.02448 -0.11431
H -0.63403 0.63499 0.05203
3
Step 2520
O 0.14483 0.08385 -0.04703
H 1.09398 0.02608 -0.11352
H -0.63467 0.63069 0.05380
3
Step 2530
O 0.14535 0.08348 -0.04428
H 1.10114 0.03430 -0.11032
H -0.63360 0.62971 0.05156
3
Step 2540
O 0.14712 0.07471 -0.04054
H 1.10503 0.03861 -0.11038
H -0.63185 0.62920 0.05122
3
Step 2550
O 0.14924 0.07263 -0.03556
H 1.09911 0.03562 -0.11306
H -0.62778 0.62661 0.04845
3
Step 2560
O 0.14507 0.06850 -0.02514
H 1.09855 0.02886 -0.10293
H -0.63182 0.62971 0.04706
3
Step 2570
O 0.14593 0.06522 -0.01594
H 1.10012 0.03256 -0.10566
H -0.63160 0.63188 0.05384
3
Step 2580
O 0.15282 0.06862 -0.02205
H 1.10907 0.02490 -0.10743
H -0.62997 0.62968 0.04648
3
Step 2590
O 0.14794 0.06827 -0.02315
H 1.10564 0.02696 -0.10607
H -0.63149 0.63321 0.05113
3
Step 2600
O 0.14330 0.07153 -0.03049
H 1.10075 0.02241 -0.10140
H -0.62430 0.63675 0.05137
3
Step 2610
O 0.14264 0.06675 -0.03505
H 1.09776 0.02659 -0.10383
H -0.63004 0.63676 0.05499
3
Step 2620
O 0.14559 0.07422 -0.03747
H 1.10172 0.03242 -0.10998
H -0.63095 0.63128 0.05644
3
Step 2630
O 0.14359 0.07039 -0.03821
H 1.10654 0.03071 -0.11150
H -0.62783 0.63016 0.06009
3
Step 2640
O 0.14398 0.07070 -0.03362
H 1.09858 0.02874 -0.11504
H -0.62618 0.63382 0.06720
3
Step 2650
O 0.14202 0.06899 -0.03175
H 1.09520 0.03088 -0.11788
H -0.63010 0.63769 0.05936
3
Step 2660
O 0.13956 0.07286 -0.03710
H 1.09845 0.02874 -0.11723
H -0.63518 0.63398 0.05741
3
Step 2670
O 0.14072 0.07611 -0.04055
H 1.09304 0.02889 -0.11181
H -0.63597 0.63690 0.05790
3
Step 2680
O 0.13567 0.07808 -0.04072
H 1.08916 0.03097 -0.10631
H -0.64150 0.64099 0.06785
3
Step 2690
O 0.13483 0.08236 -0.03950
H 1.08608 0.02866 -0.11117
H -0.64257 0.64251 0.06407
3
Step 2700
O 0.13804 0.07856 -0.03897
H 1.08696 0.02663 -0.10949
H -0.63424 0.64299 0.06324
3
Step 2710
O 0.13086 0.07991 -0.04514
H 1.08693 0.01714 -0.10712
H -0.62950 0.64167 0.06898
3
Step 2720
O 0.12957 0.06942 -0.05322
H 1.08926 0.01222 -0.11274
H -0.63015 0.64835 0.06340
3
Step 2730
O 0.13193 0.06517 -0.04509
H 1.09308 0.01828 -0.11493
H -0.62635 0.64318 0.05740
3
Step 2740
O 0.13138 0.06111 -0.03842
H 1.09348 0.02362 -0.11093
H -0.62954 0.63996 0.05059
3
Step 2750
O 0.13494 0.05843 -0.03893
H 1.09377 0.02302 -0.11263
H -0.62364 0.64265 0.05149
3
Step 2760
O 0.13124 0.05409 -0.04505
H 1.09290 0.01888 -0.11074
H -0.62275 0.63683 0.04732
3
Step 2770
O 0.13705 0.05252 -0.04402
H 1.09535 0.01606 -0.10973
H -0.61879 0.63901 0.05345
3
Step 2780
O 0.13731 0.05217 -0.04496
H 1.09573 0.01287 -0.11268
H -0.62061 0.63844 0.05461
3
Step 2790
O 0.13862 0.05176 -0.04203
H 1.09784 0.01315 -0.11290
H -0.60794 0.64513 0.05580
3
Step 2800
O 0.13806 0.05832 -0.03436
H 1.09988 0.01588 -0.10937
H -0.60897 0.64876 0.05443
3
Step 2810
O 0.13953 0.05594 -0.03058
H 1.09766 0.01051 -0.10902
H -0.61443 0.64641 0.05930
3
Step 2820
O 0.13276 0.05108 -0.02538
H 1.09693 0.01199 -0.10166
H -0.61305 0.63827 0.05402
3
Step 2830
O 0.14457 0.05454 -0.02770
H 1.09767 0.01672 -0.10439
H -0.61477 0.63896 0.05815
3
Step 2840
O 0.14213 0.06075 -0.02659
H 1.09782 0.01877 -0.10568
H -0.61443 0.64870 0.05418
3
Step 2850
O 0.14119 0.06548 -0.02834
H 1.09447 0.02106 -0.10968
H -0.61599 0.65469 0.05715
3
Step 2860
O 0.13836 0.06778 -0.02529
H 1.09360 0.02091 -0.10854
H -0.61371 0.64838 0.06323
3
Step 2870
O 0.13900 0.06580 -0.02271
H 1.09381 0.02331 -0.11388
H -0.61183 0.65402 0.05922
3
Step 2880
O 0.13711 0.06300 -0.02676
H 1.09480 0.02153 -0.11316
H -0.60979 0.65713 0.05348
3
Step 2890
O 0.13926 0.06348 -0.03101
H 1.09811 0.02038 -0.11268
H -0.60897 0.66075 0.05388
3
Step 2900
O 0.14237 0.06385 -0.03786
H 1.09830 0.02201 -0.11608
H -0.60687 0.65608 0.05654
3
Step 2910
O 0.13762 0.05391 -0.03674
H 1.09161 0.01981 -0.11305
H -0.60230 0.65644 0.05378
3
Step 2920
O 0.13521 0.04962 -0.03963
H 1.08907 0.01615 -0.10768
H -0.59355 0.65899 0.05091
3
Step 2930
O 0.14306 0.04624 -0.03867
H 1.08983 0.01556 -0.11372
H -0.59891 0.65515 0.05341
3
Step 2940
O 0.14404 0.05015 -0.03846
H 1.09716 0.00629 -0.11481
H -0.59322 0.65076 0.05289
3
Step 2950
O 0.14018 0.04984 -0.02986
H 1.09706 -0.00155 -0.11111
H -0.60110 0.64979 0.05689
3
Step 2960
O 0.13818 0.05115 -0.02387
H 1.09702 0.00440 -0.12132
H -0.60899 0.64724 0.05684
3
Step 2970
O 0.13819 0.05115 -0.01730
H 1.09713 0.00912 -0.12741
H -0.61253 0.64485 0.05424
3
Step 2980
O 0.14225 0.05402 -0.02171
H 1.09119 0.01032 -0.12670
H -0.60222 0.65088 0.05081
3
Step 2990
O 0.14441 0.04705 -0.01396
H 1.09581 0.00858 -0.13366
H -0.60435 0.64873 0.05158
3
Step 3000
O 0.14225 0.04613 -0.01385
H 1.09291 0.01056 -0.14018
H -0.60068 0.64755 0.05873
3
Step 3010
O 0.13918 0.05006 -0.01314
H 1.09279 0.00370 -0.14034
H -0.60569 0.64899 0.05413
3
Step 3020
O 0.14187 0.05241 -0.00663
H 1.09059 0.00320 -0.14010
H -0.60770 0.65139 0.05692
3
Step 3030
O 0.14004 0.05486 -0.01861
H 1.09033 0.00368 -0.13838
H -0.61322 0.65584 0.05656
3
Step 3040
O 0.13967 0.05419 -0.01456
H 1.08945 0.00789 -0.13750
H -0.61326 0.65100 0.06295
3
Step 3050
O 0.13568 0.05205 -0.01393
H 1.09699 0.00770 -0.12868
H -0.61183 0.64718 0.06658
3
Step 3060
O 0.13678 0.05142 -0.01082
H 1.09008 0.00457 -0.12310
H -0.61780 0.64670 0.06015
3
Step 3070
O 0.13517 0.05195 -0.00920
H 1.09074 0.00523 -0.12380
H -0.61894 0.64167 0.05691
3
Step 3080
O 0.14384 0.06015 -0.00345
H 1.09002 0.00577 -0.12608
H -0.61148 0.63977 0.05526
3
Step 3090
O 0.14274 0.06227 -0.00111
H 1.09457 0.01061 -0.12372
H -0.61507 0.64178 0.04853
3
Step 3100
O 0.14593 0.06218 -0.00492
H 1.09500 0.01750 -0.12381
H -0.61708 0.64266 0.04781
3
Step 3110
O 0.14922 0.05879 0.00469
H 1.09980 0.01690 -0.12444
H -0.61582 0.63612 0.05447
3
Step 3120
O 0.15046 0.06612 0.01111
H 1.09942 0.01304 -0.12377
H -0.61501 0.63852 0.05721
3
Step 3130
O 0.14955 0.06656 0.00998
H 1.10087 0.00732 -0.12490
H -0.61321 0.63802 0.06157
3
Step 3140
O 0.15378 0.06049 0.01279
H 1.10266 -0.00409 -0.12312
H -0.61256 0.63969 0.05639
3
Step 3150
O 0.15320 0.06068 0.00784
H 1.10016 -0.00803 -0.12791
H -0.61378 0.63355 0.05898
3
Step 3160
O 0.15033 0.06361 0.01113
H 1.09842 -0.01041 -0.13183
H -0.61756 0.63100 0.06275
3
Step 3170
O 0.14827 0.06706 0.00985
H 1.09734 -0.01411 -0.13105
H -0.62581 0.63009 0.05781
3
Step 3180
O 0.14997 0.07333 0.01226
H 1.10176 -0.02102 -0.12606
H -0.62424 0.63797 0.05948
3
Step 3190
O 0.15027 0.07678 0.01956
H 1.09623 -0.01701 -0.12205
H -0.62576 0.63671 0.07291
3
Step 3200
O 0.15566 0.07677 0.02311
H 1.09459 -0.01914 -0.12783
H -0.63029 0.63469 0.06876
3
Step 3210
O 0.15567 0.08173 0.02622
H 1.09870 -0.01810 -0.12325
H -0.62796 0.63423 0.07656
3
Step 3220
O 0.15318 0.08010 0.02249
H 1.09455 -0.02568 -0.12992
H -0.62851 0.63067 0.08203
3
Step 3230
O 0.15257 0.07366 0.02269
H 1.09313 -0.03091 -0.13019
H -0.62134 0.63824 0.08616
3
Step 3240
O 0.15056 0.08021 0.02331